8
Lattice="4.2185384935702315 0.0 0.0 -0.00031856707115276295 4.475972338996621 0.0 -0.0007121308519537951 -0.0008381740401650961 5.162403043259274" Properties=species:S:1:pos:R:3:forces:R:3 unique_id=48dd609aaaeda5d276854d3a839b220b key_value_pairs="_JSON {\"extinct\": 0, \"raw_score\": 29.726360975410483, \"generation\": 1, \"relaxed\": 1, \"gaid\": 13}" confid=13 relax_id=20 energy=-29.726360975410483 stress="5.032396018664773e-05 -9.971019450049976e-07 -6.084157077035387e-05 -9.971019450049976e-07 0.00021649619996556808 -5.798926087722219e-06 -6.084157077035387e-05 -5.798926087722219e-06 7.435726751600939e-05" pbc="T T T"
Cu       4.07414276       0.49942726       1.63481028       0.01047954      -0.00360024      -0.00293743
Cu       4.07175329       2.73507683       2.92743979      -0.00836354      -0.00235305      -0.00734553
Cu       4.07109549       2.73820388       0.34853706       0.00798774      -0.01624467       0.01194360
Cu       1.96561823       4.22301754       2.92469681      -0.00095096       0.01038737      -0.00758174
Cu       1.96102949       1.98398759       4.21929305      -0.01297647      -0.01272917       0.00116277
Cu       1.96281607       1.98468232       1.63804392      -0.00796443      -0.00224912       0.00590693
Cu       1.96734811       4.22299567       0.34443494      -0.00631011       0.01812477       0.00508603
Cu       4.07521190       0.50000996       4.21543811       0.01809825       0.00866413      -0.00623463
8
Lattice="4.46769337168838 0.0 0.0 1.4889361013923472 4.939946985064542 0.0 1.487302180585428 2.2455715339287705 4.402962920550712" Properties=species:S:1:pos:R:3:forces:R:3 unique_id=6d7b9b9d580775bf6a6809cace57774e key_value_pairs="_JSON {\"extinct\": 0, \"raw_score\": 29.717119180280413, \"generation\": 0, \"relaxed\": 1, \"gaid\": 3}" confid=3 relax_id=9 energy=-29.717119180280413 stress="-0.0003438919073189608 -1.2651271086167157e-05 -4.223016029945161e-05 -1.2651271086167157e-05 -0.00018158125916876828 -2.9828507940257803e-05 -4.223016029945161e-05 -2.9828507940257803e-05 5.3638308802642525e-05" pbc="T T T"
Cu       2.43237414       0.58359789       1.07239638      -0.00116711      -0.00454973       0.00203305
Cu       3.92022335       4.17480228       3.27346755      -0.00158529       0.00314380      -0.00082619
Cu       6.15456658       4.84968545       2.17269920      -0.00003407      -0.00298914       0.00055763
Cu       6.15403244       3.50098572       4.37376541       0.00278647       0.00439508      -0.00176450
Cu       3.17684219       3.05357138       1.07239638      -0.00116711      -0.00454973       0.00203306
Cu       3.17575530       1.70482879       3.27346755      -0.00158529       0.00314380      -0.00082618
Cu       5.41009853       2.37971196       2.17269920      -0.00003407      -0.00298914       0.00055763
Cu       6.89850049       5.97095921       4.37376542       0.00278647       0.00439508      -0.00176450
8
Lattice="4.468943494497191 0.0 0.0 1.4883040150681306 4.940362618217557 0.0 1.4876599429042738 2.2455615990915154 4.400851272333257" Properties=species:S:1:pos:R:3:forces:R:3 unique_id=c32a7fce57d2f56d4de9a13c5dc2cfdc key_value_pairs="_JSON {\"extinct\": 0, \"raw_score\": 29.716961366399065, \"generation\": 1, \"relaxed\": 1, \"gaid\": 11}" confid=11 relax_id=19 energy=-29.716961366399065 stress="-0.00017975948405848523 3.698959712201908e-05 -6.932058963859692e-05 3.698959712201908e-05 -0.00029780638193585313 4.753581415781147e-06 -6.932058963859692e-05 4.753581415781147e-06 -0.0003145746070281986" pbc="T T T"
Cu       4.69503029       3.58828906       2.16431600       0.00366347       0.00306841      -0.01730930
Cu       5.44141097       4.71060789       4.36301366      -0.00296198       0.00013547      -0.00206586
Cu       4.69470826       2.24088854       4.36474164       0.00366347       0.00306841      -0.01730930
Cu       3.95342899       1.11764578       2.16258802      -0.00296198       0.00013546      -0.00206586
Cu       1.71738403       1.78666386       1.05798704      -0.00636840      -0.00390180       0.01367445
Cu       2.45820166       2.90921564       3.26003890       0.00566691       0.00069793       0.00570071
Cu       3.20536600       5.37962596       3.25841268      -0.00636840      -0.00390180       0.01367445
Cu       2.45852370       4.25661616       1.05961326       0.00566691       0.00069793       0.00570072
8
Lattice="3.653768849173261 0.0 0.0 0.001967083847856517 5.156862775371365 0.0 6.252064143152429e-05 0.0015389570522188264 5.1576544538596405" Properties=species:S:1:pos:R:3:forces:R:3 unique_id=877faeb4be9cd438cf781be7ea2739fc key_value_pairs="_JSON {\"extinct\": 0, \"raw_score\": 29.716713008173034, \"generation\": 2, \"relaxed\": 1, \"gaid\": 22}" confid=22 relax_id=31 energy=-29.716713008173034 stress="0.00016706997535764087 -0.000155469974468695 0.00023497043214459082 -0.000155469974468695 -0.00017072171401179807 -4.7431887355231015e-05 0.00023497043214459082 -4.7431887355231015e-05 -0.00033585526325137846" pbc="T T T"
Cu       0.14062303       4.41238493       3.72105514       0.00326925      -0.00743258       0.00059795
Cu       0.13975691       4.41274175       1.14122048       0.00271962      -0.00029076      -0.00456830
Cu       1.96514787       3.12395322       5.01101067      -0.01163890      -0.01483726      -0.00838506
Cu       1.96319732       0.54082669       2.42842325      -0.02852697       0.00484260       0.01337480
Cu       0.14288188       1.83444687       3.71419310       0.02337162      -0.00271567       0.00964833
Cu       1.96436787       3.12343002       2.43094450      -0.00668404      -0.00581091      -0.02054268
Cu       1.97018018       0.54389508       5.00673223       0.01476015      -0.00560334       0.02375939
Cu       0.13664487       1.83417256       1.13292137       0.00272925       0.03184792      -0.01388444
