40
Lattice="5.587 0.0 0.0 0.0 8.413 0.0 -0.0830783 0.0 8.06757225" Properties=species:S:1:pos:R:3:forces:R:3 step=0 confid=-1 wdir=cand0 energy=-286.04976854 pbc="T T T"
Al       2.09378001       0.65066302       5.02977003      -0.84299551      -0.75758676      -3.33439505
Al       0.54183301       4.89357002       6.92308999       0.13337236      -0.31741436      -0.82593060
O        4.92888001       3.54670997       7.27967999      -1.05201185      -0.57341081      -0.36345236
O        3.53342998       7.67121999       5.05103002      -1.64537977       0.27046827      -0.62547785
O        1.83667999       3.48945000       6.56207001       0.27727171      -0.43876753       7.15345759
O        0.72130399       7.89917998       4.96934997       0.51643218      -2.98478191       2.39891799
Al       3.84994002       4.99518998       3.10749999      -1.42366986      -1.32128935       0.51603493
Al       4.50488001       0.68100602       1.01538997       1.10195162       2.44246822      -0.49682847
O        0.92567900       7.60732998       0.87173797      -2.98285204       0.44029656      -1.71919353
O        1.93055000       3.13668996       3.34703000       1.39056213       2.28560532      -3.86730210
O        3.54706999       7.68308997       1.37885999       0.14576917      -2.83926184      -2.28664921
O        5.08704002       3.70763998       3.06501002      -2.47266294      -2.07814632      -1.05195143
Al       3.53466001       7.62129001       3.29009997      -1.40899546       3.58456264      -2.36615641
Al       4.98890998       3.59802002       1.27344998       1.11100881      -1.57807545      -1.35774440
O        0.71830901       4.91458999       1.10942002       1.27892929       1.80538537      -3.42891345
O        1.92867998       0.47920498       3.00214000       1.83384134      -0.19730762       1.94107676
O        3.92360999       5.06639004       1.15695997      -2.92094635       0.34807691       0.63216903
O        4.53039998       0.94348001       2.73264000       0.05550431      -0.89910530       2.48171322
Al       1.84165998       3.45960000       4.93501002       1.15831274       0.47726265      -3.08607198
Al       0.86865998       7.80423002       6.98332999      -1.90676977      -0.45488284      -0.35224718
O        4.51243997       0.80422702       7.18546003       2.95940655       0.37872196       0.31976329
O        3.57844001       4.74998998       4.83121998      -1.45710299       2.36488656       2.49408756
O        2.01610998       0.82350600       6.86069999      -2.69581974       0.13429647       0.51745262
O        0.70068297       4.76148996       4.88179002      -0.96646448       3.41773992       3.12952545
Al       2.08084998       6.29812996       1.02027997       2.18703002      -0.98574440       1.00773254
Al       5.06954002       6.44805997       1.08964003      -0.30486387      -0.05430222      -0.84399687
Al       3.45368001       6.19946003       6.04752001       0.25827154      -0.56716784      -1.64006268
O        4.83884002       6.55918998       7.06273999       2.62671649      -1.95570532       1.30010280
O        2.01304000       6.39747000       7.14141003       0.06555668      -2.07595238      -0.20375321
Al       3.33324001       2.22032001       7.02862997      -0.98814576       0.67762290      -0.54011922
Al       0.38675999       2.04404999       7.01304003       1.09311758       0.44523630       0.13233421
Al       2.02174001       2.06546999       2.14813004      -0.53911731      -3.47482712      -2.73340276
O        0.47956098       1.95775003       0.91559499       0.68414370       1.11194527      -0.03305198
O        3.37253002       2.17714996       0.78183198      -0.67686156       1.09478706       1.37020621
Al       4.77837999       1.97765998       4.07559003      -3.80697059       2.14374298      -3.51473860
O        3.14496000       2.10033002       5.04184001       3.17818134      -0.74721876       1.68170442
O        0.44855797       2.03776001       5.04700003       3.70817069      -0.26528850       4.86637864
Al       0.77643400       6.25047999       4.01303004       1.08112383       1.65864700       0.07308659
O        2.16275998       5.99422001       2.83527001       1.91080621       1.45485735       1.43382822
O        5.00964999       6.61117004       2.93624004      -0.66385047      -1.97037307       1.22186726
40
Lattice="5.65539788 0.0 0.0 0.0 8.71701089 0.0 -0.08396938 0.0 8.15410302" Properties=species:S:1:pos:R:3:forces:R:3 step=0 confid=-1 wdir=cand1 energy=-291.17730168 pbc="T T T"
Al       2.13941998       0.60745397       4.91460004      -1.00053692       0.20816224      -0.61222915
Al       0.41278599       4.81234999       6.95997997      -0.71074971       1.00015223       0.82837429
O        4.84792998       3.26299998       7.37401001       1.28864170       0.89805081      -1.04021794
O        3.39251998       8.04925996       4.81232997       0.62532132      -3.10395574       2.77411819
O        1.90271000       3.32822999       7.04801998      -1.55157273      -0.02649319      -1.44333253
O        0.91618197       7.90336004       5.09817002      -0.84816564      -0.20209662      -0.03797030
Al       3.43196999       4.79104004       3.36859002       0.31373069       0.21503746      -0.97204429
Al       4.99435002       0.52042098       1.02318003      -0.80330085      -1.46571997       2.03741811
O        0.41069199       7.82112001       0.63012397       1.51382040      -1.41339303       0.99010277
O        2.04046000       3.47145004       3.26047998       1.13763350      -0.30441314      -1.32169464
O        3.57148000       7.63084004       1.13309000      -1.01680265       1.53261329       0.43238219
O        4.76595999       3.43114999       3.07805998      -0.69014948       2.57052368      -2.31603744
Al       3.44191997       7.93708999       3.09083004       0.64365485       0.20407191      -3.09661420
Al       4.90073000       3.42301998       1.12137997      -0.96850731       1.97400744       0.66964662
O        0.62649899       5.10728003       0.79441699      -1.25887559      -0.76725432      -1.55252804
O        1.99046999       0.48288300       3.02195999       1.31177163       1.16169848      -0.51119623
O        3.59957001       4.97536001       0.66162702       0.97048222       0.18849468       2.35031210
O        4.81094000       0.61431400       3.00528999      -0.64203569      -0.96585485      -2.48778420
Al       1.79850001       3.54271997       5.03956998       1.90777014      -0.20588192       0.50939710
Al       0.69795099       7.79455997       6.89928996      -1.39053086       1.10832832       1.06015493
O        4.81069997       0.66344499       7.35641003      -0.20743822       1.56344555      -0.75136249
O        3.48349997       4.95858997       5.14241002       0.19606462      -0.01158559      -0.85858982
O        1.84041998       0.73533897       7.20903000       0.56867673      -0.23790132      -1.72853901
O        1.08833002       5.22776002       5.31255003      -2.65892062      -1.63869146      -1.42137815
Al       2.09861998       6.15751997       0.67551900       2.14921117       0.65651174       3.58561080
Al       4.84804001       6.40497996       1.03937000       0.58237430      -0.18340641      -1.47431400
Al       3.40935001       6.54536001       5.99045003       0.20357885       0.06071574      -0.54340200
O        4.91390001       6.52367000       6.95751001       0.70218555      -1.23338245      -0.29661510
O        1.99736997       6.56429998       7.13999998       0.54495616      -0.13479934      -0.34386809
Al       3.37078000       2.02275004       7.23785998      -0.59436172      -0.63710277      -1.93229134
Al       0.49990398       1.92856997       7.23481002       0.91814718       0.51895581      -0.67728894
Al       2.13151002       2.01245002       1.97131996      -1.58835548      -0.46939858       2.84346686
O        0.50152899       2.09476998       1.07688001       1.39118058      -0.49690263      -0.07792120
O        3.54062001       2.05642001       0.95069103       0.42883413       0.07722958      -0.29514252
Al       4.95735000       2.02005997       4.01981998      -1.71502071      -1.82897372       0.92596027
O        3.48218998       1.88096001       5.15651001      -0.78501098       1.30096869       1.29912096
O        0.73653802       1.97007000       5.02659004       0.36268553       0.91813874       1.50630281
Al       0.74104202       6.51130003       3.91936999       0.21818060      -0.14242256       0.21524147
O        2.20816001       6.18533996       2.72831003      -0.87743217       0.61317380       1.69960307
O        4.81068001       6.47640000       2.89478999       1.32886550      -1.30065057       2.06514906
40
Lattice="5.77882505 0.0 0.0 0.0 8.50947498 0.0 -0.08429329 0.0 8.1855573" Properties=species:S:1:pos:R:3:forces:R:3 step=0 confid=-1 wdir=cand2 energy=-292.71506118 pbc="T T T"
Al       2.00586999       0.61731697       5.01568002      -0.47246082      -0.42550361      -1.34887266
Al       0.57718899       5.05168003       7.05935002       0.73088252      -3.10268455      -2.10514949
O        5.03986002       3.25208996       7.50796996      -0.59391823       0.83449090      -1.94912603
O        3.47575000       7.78201001       4.99415004      -1.26789271       0.11817556      -0.89468853
O        1.89288999       3.31560001       6.83763004       0.32050715      -0.10266276       0.57906473
O        0.56404598       7.88696995       5.13319998       0.34275434      -1.52627338       0.19987344
Al       3.53624003       4.92992000       3.08909999      -1.70584170      -2.43673275      -1.29679331
Al       4.97961000       0.68293004       1.14608001       0.29692666       0.77486427      -0.30478744
O        0.59049399       7.43505003       0.63233700      -1.16073976       2.26130627       1.42018350
O        2.17280002       3.50524999       3.08315998       0.58689676       1.16880238      -0.18287957
O        3.74327998       7.63292000       1.27751002      -0.85587595       1.13471127      -1.55501493
O        4.71215002       3.46401997       2.81732001       0.47339343       0.27363947       0.64834582
Al       3.54084998       7.82745001       3.06397000      -1.53389125       0.80175333       1.39004154
Al       5.11291001       3.73161003       1.05142002      -0.38011914      -3.04835535       1.03776142
O        0.53730501       5.02826000       0.71386802      -0.50215820      -0.42004683       1.46149617
O        2.15833002       0.84849796       3.20599998       0.85252616      -2.67630645       0.88257156
O        3.41591999       4.99004003       1.00984999       2.21306058       0.73319018       1.23557898
O        4.67437000       0.72324300       2.94982003       1.44028966       0.00270278       0.62363250
Al       2.10303999       3.57512002       4.87379001      -2.19561481      -0.73329080       1.11218161
Al       0.40488900       7.79288001       7.02793999       0.29521973       0.56656640      -0.85160484
O        4.91746002       0.67806798       7.32451001       1.59859437       0.04365873      -0.27433825
O        3.25189997       4.94832003       4.85037997       1.44036896       0.61670238       0.97570857
O        1.92509999       0.54015603       6.88766000      -0.85408315       2.03836225      -0.12111311
O        0.77518100       4.88618997       5.14341998      -1.42142509       1.79897790       0.36939570
Al       1.94538003       6.29715002       0.98525796       1.25102002      -0.43393093      -0.07359605
Al       4.83047997       6.33691999       0.93485498       1.00260506      -0.76760505      -0.75043456
Al       3.29962000       6.32693003       5.93693003       0.71654091      -0.34165668       1.75016059
O        4.99680002       6.23051002       7.15380996      -2.24227679       1.08730463      -1.94280006
O        1.98229002       6.21859999       7.23948000       0.39315715       0.78701756      -0.96874844
Al       3.45566001       1.97396002       7.03604999      -0.01807073       0.18413558       3.97804979
Al       0.58530201       2.05771001       7.08844002       0.24166597      -0.14276477       0.82240643
Al       2.29625999       2.09551999       2.02324998      -1.80091974       0.07802410      -0.36033861
O        0.64557099       1.98653004       1.10692997      -0.17797002       0.06768914      -0.91247443
O        3.54000002       1.80853999       0.78971498      -0.19665520       1.10246888      -0.54374317
Al       4.86700999       2.09518004       4.14211996       0.81347032       0.12387262      -2.32042662
O        3.49090002       2.14704001       5.32762997       0.12318403      -0.21787753      -2.56968990
O        0.70755602       2.13346000       4.91929000      -0.54136355      -0.48004043       1.73858479
Al       0.51353501       6.40115001       4.13486003       0.66844167      -0.83806902      -1.27903273
O        2.01850001       6.47779001       2.79719999      -0.24074704      -0.41090072       1.66947891
O        4.74974999       6.21144003       2.99244002       2.36051844       1.50628504       0.71113669
40
Lattice="5.587 0.0 0.0 0.0 8.413 0.0 -0.0830783 0.0 8.06757225" Properties=species:S:1:pos:R:3:forces:R:3 step=0 confid=-1 wdir=cand3 energy=-285.76283507 pbc="T T T"
Al       1.68791003       0.80028797       4.69159999       3.42663499      -2.18960976       2.53836202
Al       0.55276202       4.87214001       6.98991999      -0.12855011      -4.06686515      -0.67357821
O        4.90569002       3.45296004       7.17939999       0.06427320      -1.20904922       2.18874301
O        3.38820997       7.71192999       5.24248997      -0.13255082       0.77823093      -2.33785908
O        1.88701999       3.36390002       6.96807002       0.99047970       0.95138817      -0.07153634
O        0.77010001       7.78253003       4.98338004      -1.59576105      -1.11812836       0.29196129
Al       3.50155999       4.96361002       3.16614003       0.03308317      -0.49712523       0.24873548
Al       4.88176998       0.55049397       1.02897003       0.30263751       0.11155053      -0.37520101
O        0.68653600       7.51034004       0.81170200       1.34215695       2.05772220      -0.36604637
O        2.08253002       3.66998002       3.21675001      -0.33413251       1.51995290      -0.86449815
O        3.81928997       7.44821003       0.70255896      -3.41014017       2.33705294       2.72905396
O        4.68198002       3.59312996       3.11355003       1.12713356      -1.39350665      -1.82891993
Al       3.67123001       7.69972996       3.20539998      -1.35996606      -1.23419408       3.21728941
Al       4.82222000       3.51078999       1.12354997       0.47229797       1.25124019      -0.43271588
O        0.60408299       4.88891999       0.92263104       0.03037260       0.66940044      -0.09034105
O        2.75302997       1.27416997       3.46824003      -4.21181781      -1.07142976      -3.66842124
O        3.39807998       4.90066000       1.16113002       1.14874654       0.19812326       0.75115656
O        4.61835997       0.62718999       2.81284999       6.03247226      -0.14452112      -0.71879081
Al       1.87783002       3.55996002       4.95634004       2.06077605      -0.27936922       1.59456431
Al       0.53268000       7.61264001       6.80431000       0.38063206       1.83561077       0.42532831
O        4.77378997       0.80246702       7.23388999       3.00109847      -0.88627176       0.23587290
O        3.44068002       5.24814003       4.95015003       0.52212916      -6.80074427      -6.53389762
O        1.97792001       0.60296997       7.10348002      -1.09017971       1.12977540      -1.33494149
O        0.91692698       5.01622004       5.20508999      -1.51894700       0.68222655      -0.90187028
Al       1.98715002       6.22736999       0.93642401       3.53556989      -0.17782620       1.57172412
Al       5.06215997       6.33052001       0.78175896      -3.53745202      -3.67736943       3.05962193
Al       3.20155002       6.12502004       6.16425003       1.86480390       6.35180258       3.45272576
O        4.85513001       6.09128004       7.11449000       0.00196056       1.62258136      -2.33410649
O        1.81366001       6.19882998       7.17359997      -0.46592305       0.51497599       0.87182325
Al       3.40877002       1.92195002       7.08350003      -0.23448044       1.63406597      -1.53741266
Al       0.79711002       1.99091003       7.14275998      -2.78656642       0.65141960      -0.47650995
Al       2.17523000       2.44010997       2.01596997      -0.04746936      -1.37426850       0.33700808
O        0.84502101       1.98717003       0.87734598      -1.31179922       0.50213137       3.18948076
O        3.68424002       2.08425000       1.15480996      -0.27267529       0.14201991      -2.94336565
Al       4.47057002       2.01470999       3.94384004      -0.33463474       1.16713430       1.09230811
O        3.39518002       2.39217000       5.29757003      -0.02615257      -0.19542577       1.42981884
O        0.73450200       2.10964001       5.16321002      -2.91846757       0.63680231      -1.12224018
Al       0.71508799       6.31388003       3.96880998       1.49852855      -0.68499056       1.02187119
O        2.27066999       6.53466003       2.88903998      -1.26927710      -0.28577406      -0.65123945
O        4.90098000       6.28807996       2.97107000      -0.84884408       0.54126145      -0.98395745
40
Lattice="5.72970678 0.0 0.0 0.0 8.76355042 0.0 -0.08419632 0.0 8.17614135" Properties=species:S:1:pos:R:3:forces:R:3 step=0 confid=-1 wdir=cand4 energy=-292.47855862 pbc="T T T"
Al       1.88313998       0.57749002       4.99600002       1.65535585      -1.19327452      -0.92066661
Al       0.52183900       4.98035997       7.00617003      -0.00675682      -0.27493898      -1.38602005
O        4.85365001       3.29709997       7.28893999      -0.10843258      -0.77941557      -0.81710147
O        3.34852998       7.77921003       4.89874000       0.22589444       1.97683112      -1.29479278
O        1.61355998       3.39846997       6.81583003       1.40262072      -1.06350175       1.53778389
O        0.91363003       7.75605998       5.18094998      -1.75813588       0.63131279      -0.11680247
Al       3.64540001       4.81211996       3.18926002      -0.07479153      -0.37175452      -0.44877221
Al       5.07241998       0.73296197       1.10583996      -0.75276911      -0.88993604      -0.09163410
O        0.68247999       7.80446001       0.99042097      -1.21371164       0.62841720      -1.97953696
O        2.31336998       3.34817999       3.27419999      -1.01823374       0.37815765      -1.15800575
O        3.55417001       7.55467998       1.17573003       1.53681552       2.20975739       0.02883622
O        4.79867999       3.37002997       2.92009997       0.28780051       1.88675472      -1.10934601
Al       3.37100000       7.95050002       2.98254002       0.71589036      -0.59811144       1.76712976
Al       5.11563998       3.58836998       0.85054502      -2.38458180       2.34464564       2.97228529
O        0.60817202       5.00137996       0.65542598       0.24639516       1.12246072       0.81573828
O        2.25376002       0.61860299       3.12016999      -2.00977555      -0.26654630       0.28343930
O        3.71621998       5.04830001       1.03466003       1.34531793      -1.31453321       1.11608925
O        4.66111998       0.68741798       2.86332002       0.94823370      -1.84392324      -0.88218477
Al       1.82731002       3.55443996       5.02876002       1.05391140       0.61537771      -1.56711086
Al       0.62470301       7.79670997       7.04056002       0.00846057      -0.13295263      -0.02979685
O        4.80771998       0.53824500       7.32157997       1.72478624       0.91070870       1.10592799
O        3.43729998       5.02546000       4.95709001      -1.13195940      -1.53029407       0.14637030
O        1.73835999       0.63050003       6.93968998       0.20128154       0.83886694       0.12601147
O        0.62453201       4.99651996       5.11763002       0.61435301      -0.79413487       0.78030495
Al       2.37988002       6.21645998       0.93624300      -1.60459043      -0.10780093      -0.71839597
Al       5.10613002       6.57309004       1.12807996      -0.79527461      -2.23763586      -0.07141765
Al       3.50750999       6.43337004       5.95176004      -0.65583079       0.02868822       0.77040429
O        4.89759999       6.34651002       7.10627003       1.89840242       1.05815922       0.19332133
O        2.05620999       6.44053003       7.18032004      -1.11317344      -0.39865429       0.88987188
Al       3.24684001       2.04574998       7.23165002       0.38384779       0.17229530      -3.70583445
Al       0.38328599       1.85575997       6.96583001      -0.82691331       2.10238624      -0.66673593
Al       2.03423998       1.99566997       2.04002003       1.72450194       1.53911537       0.95148978
O        0.50548100       2.28856999       1.14640000       1.41909930      -3.61748744      -1.03057115
O        3.49041001       1.98490000       0.74087402      -0.89173795      -0.21676012       3.24220258
Al       4.72842999       2.00917004       3.98947001      -0.67460371       0.62759339       1.17752060
O        3.30633003       2.01232001       5.26397003      -0.48146347      -0.52228094       0.85019112
O        0.49047798       2.05761004       5.08504000       0.12010948      -1.39274186      -0.73842306
Al       0.71651197       6.36421003       4.03163004       0.45635910       0.52945495      -0.46093471
O        2.20494002       6.30882000       2.79354998      -1.10093201      -0.16471131       1.25915580
O        4.91773999       6.35443998       3.05167003       0.63423081       0.11040663      -0.81999027
40
Lattice="5.587 0.0 0.0 0.0 8.413 0.0 -0.0830783 0.0 8.06757225" Properties=species:S:1:pos:R:3:forces:R:3 step=0 confid=-1 wdir=cand5 energy=-285.34868904 pbc="T T T"
Al       2.14802999       0.87409101       4.89316998       2.37450570       0.53244995      -0.06444758
Al       0.63647402       4.85473999       7.08681000      -0.92090989       1.73387396      -1.76468558
O        4.52681002       3.31019000       7.32129003       4.59908304       0.89693676       0.65932442
O        3.46260001       7.78875002       4.83774003      -0.36121074      -0.80909044       0.58369959
O        1.80498000       3.56209003       7.00705002      -1.33741212      -1.57736746      -1.14895296
O        0.86922900       8.31389999       5.12936002      -3.43996779      -5.42031694      -1.12000217
Al       3.19988997       4.67023003       3.48877999       4.71669096       2.48450489      -7.66397412
Al       5.19148003       0.59714801       1.14630997      -2.81813523      -2.60688208      -1.49102043
O        0.57665998       7.47910997       0.87760003       1.79552669      -0.04461215      -0.75179287
O        2.05186001       3.44068001       3.26533002      -1.67150079      -1.16779838      -1.59712374
O        3.54444998       7.70011999       1.11991997       1.14273983      -0.12177457       0.24574084
O        4.37672000       3.18311004       2.92247998       1.35264659       1.93609425      -1.20182713
Al       3.51839003       7.46480997       2.97507999       1.87261524       3.55323213       0.43393977
Al       4.91094999       3.32417998       1.16211999      -1.99641437       1.90079698       0.14597697
O        0.63477998       4.92643002       1.03638002      -0.59660877      -0.69310583      -2.67773774
O        2.54515998       0.82632301       3.16381003       0.05809704      -0.49701939      -0.52752579
O        3.47820999       5.22093996       1.08119998       0.63847846      -3.57050483      -1.10283624
O        5.28044000       0.49133796       2.81197998      -1.18126617       0.03057354       4.19853992
Al       1.79825000       3.71853002       4.98831998      -2.29083277      -1.26163045       2.67304065
Al       0.65096402       7.92725997       6.86573996       1.53329850      -3.11242218       0.32795047
O        4.97059999       0.62352100       7.32839998      -0.90491439       2.67744621      -0.20169057
O        3.22601997       4.90148001       5.08269000       0.52136647      -0.32343400       3.03443585
O        2.03856997       0.81717799       7.08174001      -2.19309328      -0.24327291      -0.80858562
O        0.70288502       5.05482999       4.72688997      -0.28385658       2.28498686       1.84068917
Al       2.11167003       6.29803002       0.91207204       0.88251745       0.86651233       1.09480451
Al       4.92158997       6.18750002       0.97861701      -2.06936955       1.12917242       1.58402292
Al       3.35761997       6.37545999       5.97035997       2.32190452       0.81985184       0.01615771
O        5.14676998       6.49119999       6.65770002      -1.85573645      -2.24996929       1.74814869
O        2.06268002       6.36076997       7.15420004      -1.52525380       0.34466375      -0.28035262
Al       3.48159998       1.86326000       7.20351001      -0.93031381       0.54975073      -1.08855814
Al       0.59266000       2.04140999       7.04180997       0.57611317       2.73915684      -0.78998032
Al       2.08489998       2.10611000       2.08704004       2.00595695       0.57884652      -0.06417214
O        0.69426801       1.98072004       1.00927999      -0.44884683       1.95320184      -0.46838059
O        3.43743999       2.06741996       0.87287300       0.84271554      -0.30908990       1.91331516
Al       4.61447001       1.86730001       3.95958003       1.22587407      -1.07389631       1.69984491
O        3.30857997       2.08613998       5.37200000       1.21328335       0.58923783      -1.37179600
O        0.49385097       2.33778997       5.06685997       0.67946418      -1.14916076       0.91967185
Al       0.73681602       6.89957003       3.84060004      -1.60882636      -3.05818777       0.78952570
O        2.26633998       6.32235999       2.87428003      -4.44783848      -0.39661682       0.68680503
O        4.67467002       6.06488997       2.90972999       2.52943040       2.08486284       1.58980822
40
Lattice="5.7872138 0.0 0.0 0.0 8.86908908 0.0 -0.08190922 0.0 7.95404493" Properties=species:S:1:pos:R:3:forces:R:3 step=0 confid=-1 wdir=cand6 energy=-291.73247002 pbc="T T T"
Al       2.08395000       0.52995202       4.89053999       0.18423263      -2.52912533      -0.17728524
Al       0.31338398       5.02095000       6.87717001       0.12765120       0.54366659       1.90222063
O        5.20927999       3.34376002       7.23657003      -0.08982639       0.96052448      -0.85164201
O        3.15690000       7.73566003       4.94891998       0.53946796       0.86775767      -0.68137375
O        2.13358001       3.20855998       6.82678997      -1.43828615      -1.21289037      -0.83264843
O        0.58370199       8.22157001       4.93584003      -0.62938674      -2.00764490       2.47229836
Al       3.51923001       4.80092998       3.23333000       1.02340576       0.83751067      -2.41349286
Al       5.06845998       0.62284996       1.17566002       1.25115434      -2.60142533       0.61027378
O        0.49063400       7.90150002       0.78214001      -0.52015186      -0.01522159       0.26793524
O        2.05601999       3.51251998       3.16652000       0.73491511      -0.29422517       0.25465373
O        3.48871999       7.77823999       1.22283999       1.04323880      -0.67961236      -1.91661581
O        4.68062002       3.34651999       2.93139000       0.92689335      -0.74639346       2.11254458
Al       3.45068000       7.88622000       2.97462000       0.45940609      -0.72270118       2.43001013
Al       5.12166002       3.46519000       1.16159003      -0.33380270       2.11534017       0.55008521
O        0.59494700       5.22699996       0.83526603      -0.28721684      -1.20237916      -0.59598535
O        2.39930002       0.45907301       3.10285996      -2.00993490       3.02103599      -0.83384667
O        3.75642001       5.04709997       1.30186001      -0.60888837      -0.60948440      -0.44430020
O        4.85062000       0.25584200       2.94833999       1.00337063       1.89840924      -0.23330459
Al       1.96792998       3.56912996       4.95715003       0.45250493       0.75662765       0.75332480
Al       0.38387099       8.00772998       6.87333004       0.36763902       0.05139739      -0.13046966
O        4.80321997       0.52933801       7.23884004       1.59554037       1.47522382      -0.43172439
O        3.32713001       5.00080998       5.03843997      -0.10370105      -2.16954182      -1.46250968
O        1.86344999       0.48634697       6.84791002      -0.45557765       1.98957611       0.22845736
O        0.72903200       5.12411001       5.14178003      -0.24049928      -1.58753898       0.70189692
Al       2.02752001       6.55970999       0.99755901      -0.00217220      -0.25014576       0.96438051
Al       4.99661000       6.45767999       1.13510004      -0.76143156      -0.05449053      -0.79923967
Al       3.31074002       6.38493998       6.05195996      -0.41445765       1.41091608       0.51550410
O        4.79922998       6.43926998       7.09111004       0.90081330      -0.03643570      -1.36280107
O        1.84673001       6.48799001       7.14264000      -0.11463770      -0.03335740      -1.31480101
Al       3.30572000       1.70997998       7.12138003       0.53688032       0.34677178      -0.91686052
Al       0.52349501       2.01001000       6.79845997       0.98068730      -0.70404291       0.86956466
Al       2.14843002       2.02082000       2.12490004       1.38844028      -0.36546056       1.04781312
O        0.66201000       2.10682000       1.18904000      -0.08633957      -1.29500207      -0.60830166