16
name="p22Pt111" Lattice="5.61142527 0.0 0.0 -2.80571263 4.85963683 0.0 0.0 0.0 18.87256432" Properties=species:S:1:pos:R:3:forces:R:3:move_mask:L:1 energy=-92.27378765 stress="0.030751796874553424 -0.00014444724570031623 0.00014779893610091557 -0.00014444724570031623 0.03075504245929888 -4.970737867853427e-05 0.00014779893610091557 -4.970737867853427e-05 0.0001634776070251343" magmom=0.0385274 free_energy=-92.3041234 pbc="T T T"
Pt       0.74819000       0.64794000       2.29085000       0.00587300      -0.00133700       0.01592400  F
Pt      -0.65467000       1.45788000       0.00000000      -0.00588700      -0.00058000      -0.01508500  F
Pt      -0.65565000       1.45760000       6.85395000       0.00738500       0.00488400      -0.00805100  T
Pt       0.75153000       2.26841000       4.55859000      -0.00894800      -0.00578400       0.00513100  T
Pt       3.55390000       0.64794000       2.29085000       0.00592700      -0.00150800       0.01551900  F
Pt       2.15104000       1.45788000       0.00000000      -0.00623100      -0.00058700      -0.01562100  F
Pt       2.15002000       1.45757000       6.85363000       0.00841100       0.00669300      -0.00295200  T
Pt       3.55725000       2.26841000       4.55850000      -0.00646000      -0.00355500       0.00993400  T
Pt      -0.65467000       3.07776000       2.29085000       0.00604600      -0.00078400       0.01475800  F
Pt      -2.05753000       3.88770000       0.00000000      -0.00605400      -0.00018900      -0.01460100  F
Pt      -2.05850000       3.88735000       6.85425000       0.00843700       0.00421500      -0.01083900  T
Pt      -0.65132000       4.69814000       4.55870000      -0.00965300      -0.00407700       0.00525900  T
Pt       2.15104000       3.07776000       2.29085000       0.00575100      -0.00074700       0.01483700  F
Pt       0.74819000       3.88770000       0.00000000      -0.00606400      -0.00038700      -0.01701200  F
Pt       0.74716000       3.88733000       6.85365000       0.00829800       0.00701000      -0.00346500  T
Pt       2.15439000       4.69814000       4.55875000      -0.00683200      -0.00326700       0.00626500  T
18
name="COadTOP" Lattice="5.6102 0.0 0.0 -2.8051 4.85857572 0.0 0.0 0.0 18.871" Properties=species:S:1:pos:R:3:forces:R:3:move_mask:L:1 energy=-108.68353543 stress="0.0242144402161033 6.231522711281845e-05 -8.1532833711413e-05 6.231522711281845e-05 0.02422991915873549 0.00018779452657957546 -8.1532833711413e-05 0.00018779452657957546 -6.824466078240754e-05" magmom=0.0003875 free_energy=-108.71469106 pbc="T T T"
C        2.75244000       0.01789000       8.86028000       0.00151700      -0.00503900       0.01013600  T
O        2.70822000       0.01882000      10.01852000       0.01531700      -0.00195600      -0.00528500  T
Pt       1.40255000       2.42928000       0.00000000       0.05545800       0.02975000      -0.10972400  F
Pt      -1.40255000       2.42928000       0.00000000      -0.05408000       0.02723900      -0.09530700  F
Pt       2.80509000       0.00000000       0.00000000      -0.00064100      -0.00295200      -0.01565200  F
Pt       2.80512000       1.61950000       2.29038000       0.00621900       0.02406900       0.12075200  F
Pt       0.00003000       1.61950000       2.29038000      -0.00540500       0.00579200      -0.04635000  F
Pt       1.40257000       4.04879000       2.29038000       0.01449000       0.00601900       0.11824600  F
Pt      -1.40252000       4.04879000       2.29038000      -0.01624000      -0.00090900       0.10546200  F
Pt       2.80773000       3.24649000       4.54705000      -0.00052800       0.00229100      -0.00173100  T
Pt       4.18934000       0.80526000       4.57518000       0.00166400      -0.00165900      -0.00654400  T
Pt       1.42203000       0.80732000       4.56880000      -0.00499500      -0.00083700       0.00318900  T
Pt       0.00157000       3.26688000       4.56932000       0.00085800      -0.00473400       0.00110400  T
Pt      -1.39347000       2.44429000       6.80509000      -0.00139100      -0.00657200      -0.00041900  T
Pt       1.40531000       2.44482000       6.80276000       0.00012700      -0.00196800       0.00109500  T
Pt       0.00639000       0.01771000       6.80452000      -0.00518700      -0.00193800       0.00054700  T
Pt       2.81508000       0.01900000       7.02196000      -0.00601800      -0.00373400       0.01650400  T
Pt       0.00000000       0.00000000       0.00000000      -0.00116600      -0.06286200      -0.09602400  F
