41
Lattice="5.587 0.0 0.0 0.0 8.413 0.0 0.0 0.0 21.43792265" Properties=species:S:1:pos:R:3:tags:I:1:forces:R:3 energy=-293.6336932328393 rank=0 pbc="T T T"
Al       2.10661428       0.60982041       4.13507607        0       0.00414732       0.01984872      -0.02610202
Al       0.53039287       4.91196296       5.99360893        0      -0.01240701      -0.00456444      -0.00920801
O        5.14260500       3.39504530       6.44558756        0      -0.01888812      -0.00273826      -0.00804889
O        3.37901866       7.67066365       4.14078649        0      -0.00298821       0.01190529      -0.01088814
O        2.00065083       3.52193177       6.03311526        0      -0.01321963       0.00536538      -0.01781330
O        0.72268599       7.75092969       4.18627066        0       0.01753012      -0.01766911       0.01858825
Al       3.58741002       4.83747996       2.31538997        0       0.00000000       0.00000000       0.00000000
Al       5.01051999       0.66462700       0.29849992        0       0.00000000       0.00000000       0.00000000
O        0.69484402       7.62218002       0.00000000        0       0.00000000       0.00000000       0.00000000
O        2.25788001       3.50821999       2.29926008        0       0.00000000       0.00000000       0.00000000
O        3.66331003       7.62218002       0.37110802        0       0.00000000       0.00000000       0.00000000
O        4.86890999       3.49981002       2.11370007        0       0.00000000       0.00000000       0.00000000
Al       3.58741002       7.78202004       2.31538997        0       0.00000000       0.00000000       0.00000000
Al       5.01051999       3.54186997       0.29849992        0       0.00000000       0.00000000       0.00000000
O        0.69484402       4.99731998       0.00000000        0       0.00000000       0.00000000       0.00000000
O        2.25788001       0.69827900       2.29926008        0       0.00000000       0.00000000       0.00000000
O        3.66331003       4.99731998       0.37110802        0       0.00000000       0.00000000       0.00000000
O        4.86890999       0.70669200       2.11370007        0       0.00000000       0.00000000       0.00000000
Al       2.12153558       3.57152677       4.13732262        0      -0.02827460       0.00345408      -0.00271493
Al       0.51597540       7.69602184       5.98137307        0      -0.00126121       0.01711554       0.00836459
O        5.11409066       0.80617542       6.43520495        0       0.00205486       0.01278238      -0.00331708
O        3.39085745       4.92932237       4.14440174        0      -0.01346162       0.01275179      -0.00504175
O        1.96022889       0.63324593       6.01910287        0       0.00386722      -0.00325190       0.01514539
O        0.74066105       4.84872427       4.20119135        0       0.02004497      -0.02581984      -0.00038313
Al       2.17891000       6.30975000       0.20168905        0       0.00000000       0.00000000       0.00000000
Al       4.96132003       6.30975000       0.19362196        0       0.00000000       0.00000000       0.00000000
Al       3.31972949       6.30258974       5.32192831        0       0.02514444      -0.00188974       0.01102857
O        4.88591673       6.30245525       6.20793406        0      -0.02354050      -0.00654242       0.00272540
O        1.77800865       6.29628604       6.31110913        0       0.02951206       0.02786676      -0.00366620
Al       3.76677692       2.12245135       6.25000109        0      -0.00071688      -0.00887299      -0.01113493
Al       0.81564047       2.08585709       6.12528221        0      -0.00176453       0.04378698       0.00711964
Al       2.21289002       2.10325000       1.24240994        0       0.00000000       0.00000000       0.00000000
O        0.73746299       2.10325000       0.20168905        0       0.00000000       0.00000000       0.00000000
O        3.62719002       2.10325000       0.08067562        0       0.00000000       0.00000000       0.00000000
Al       4.92612500       2.09981876       3.18837841        0       0.00000000       0.00000000       0.00000000
O        3.50889325       2.09571065       4.36200545        0      -0.02072413       0.01464007       0.00496173
O        0.83782002       2.09817306       4.19225838        0      -0.00267708       0.00535948       0.02200846
Al       0.77869227       6.29524578       3.19804804        0       0.00268242       0.03635890      -0.01310229
O        2.20975002       6.30975000       2.08950008        0       0.00000000       0.00000000       0.00000000
O        4.90161003       6.30975000       2.19437997        0       0.00000000       0.00000000       0.00000000
Cu       2.74732721      10.45430298       8.22215740        0       0.01803851       0.00275739       0.00736030
41
Lattice="5.587 0.0 0.0 0.0 8.413 0.0 0.0 0.0 21.43792265" Properties=species:S:1:pos:R:3:tags:I:1:forces:R:3 energy=-293.63432037716973 rank=1 pbc="T T T"
Al       2.10585024       0.61180852       4.13498590        0       0.02200409       0.02241508      -0.01891891
Al       0.52902643       4.91251680       5.99254733        0      -0.00809916      -0.00172621      -0.00647532
O        5.13866721       3.39555974       6.44345344        0      -0.01506899      -0.00178612      -0.00412545
O        3.37972015       7.67278174       4.14120715        0      -0.00425571       0.00664855      -0.01308850
O        1.99545287       3.52644400       6.03206815        0      -0.01667214       0.00344980      -0.01374823
O        0.72429789       7.75231347       4.18755961        0       0.01020165      -0.01540159       0.01175407
Al       3.58741002       4.83747996       2.31538997        0       0.00000000       0.00000000       0.00000000
Al       5.01051999       0.66462700       0.29849992        0       0.00000000       0.00000000       0.00000000
O        0.69484402       7.62218002       0.00000000        0       0.00000000       0.00000000       0.00000000
O        2.25788001       3.50821999       2.29926008        0       0.00000000       0.00000000       0.00000000
O        3.66331003       7.62218002       0.37110802        0       0.00000000       0.00000000       0.00000000
O        4.86890999       3.49981002       2.11370007        0       0.00000000       0.00000000       0.00000000
Al       3.58741002       7.78202004       2.31538997        0       0.00000000       0.00000000       0.00000000
Al       5.01051999       3.54186997       0.29849992        0       0.00000000       0.00000000       0.00000000
O        0.69484402       4.99731998       0.00000000        0       0.00000000       0.00000000       0.00000000
O        2.25788001       0.69827900       2.29926008        0       0.00000000       0.00000000       0.00000000
O        3.66331003       4.99731998       0.37110802        0       0.00000000       0.00000000       0.00000000
O        4.86890999       0.70669200       2.11370007        0       0.00000000       0.00000000       0.00000000
Al       2.11822443       3.57376672       4.13684553        0      -0.00524784      -0.00261386       0.00002018
Al       0.51709599       7.69726331       5.98241020        0      -0.00006281       0.01183990       0.00853512
O        5.11507053       0.80635476       6.43483565        0       0.00239246       0.01015132      -0.00036503
O        3.38953512       4.93046884       4.14419696        0      -0.01305720       0.01458011      -0.00791920
O        1.96205094       0.63747551       6.02047617        0      -0.00194349      -0.00176105       0.01338626
O        0.73917096       4.85066533       4.19991158        0       0.01258669      -0.02045444      -0.00351074
Al       2.17891000       6.30975000       0.20168905        0       0.00000000       0.00000000       0.00000000
Al       4.96132003       6.30975000       0.19362196        0       0.00000000       0.00000000       0.00000000
Al       3.32009835       6.30376693       5.32180576        0       0.02457878      -0.00227669       0.00802654
O        4.88630481       6.30362302       6.20805666        0      -0.02466340      -0.00524395       0.00199890
O        1.77843699       6.29853056       6.31026090        0       0.02158345       0.02301021       0.00068940
Al       3.76510605       2.11903283       6.25173034        0      -0.00252855      -0.00624137      -0.02579305
Al       0.81416315       2.08876024       6.12485428        0      -0.00174772       0.03680849       0.01078881
Al       2.21289002       2.10325000       1.24240994        0       0.00000000       0.00000000       0.00000000
O        0.73746299       2.10325000       0.20168905        0       0.00000000       0.00000000       0.00000000
O        3.62719002       2.10325000       0.08067562        0       0.00000000       0.00000000       0.00000000
Al       4.92612500       2.09981876       3.18837841        0       0.00000000       0.00000000       0.00000000
O        3.50539088       2.09696602       4.36363306        0       0.00423425       0.01097782      -0.01946136
O        0.83502392       2.09898609       4.19172329        0       0.02216228       0.00367523       0.03275917
Al       0.77862188       6.29768833       3.19772807        0       0.00522666       0.02959063      -0.00769325
O        2.20975002       6.30975000       2.08950008        0       0.00000000       0.00000000       0.00000000
O        4.90161003       6.30975000       2.19437997        0       0.00000000       0.00000000       0.00000000
Cu       2.74706860      10.46503998       8.22379351        0       0.01312232       0.00191750       0.00874591
41
Lattice="5.587 0.0 0.0 0.0 8.413 0.0 0.0 0.0 21.43792265" Properties=species:S:1:pos:R:3:tags:I:1:forces:R:3 energy=-293.63451345526914 rank=2 pbc="T T T"
Al       2.10508619       0.61379663       4.13489572        0       0.03987032       0.02501162      -0.01199303
Al       0.52765999       4.91307064       5.99148574        0      -0.00508536       0.00018462      -0.00432950
O        5.13472942       3.39607418       6.44131931        0      -0.01143104      -0.00120611      -0.00002983
O        3.38042164       7.67489982       4.14162780        0      -0.00548761       0.00142796      -0.01525615
O        1.99025490       3.53095623       6.03102104        0      -0.01989762       0.00139748      -0.00952216
O        0.72590979       7.75369726       4.18884856        0       0.00286260      -0.01312925       0.00497392
Al       3.58741002       4.83747996       2.31538997        0       0.00000000       0.00000000       0.00000000
Al       5.01051999       0.66462700       0.29849992        0       0.00000000       0.00000000       0.00000000
O        0.69484402       7.62218002       0.00000000        0       0.00000000       0.00000000       0.00000000
O        2.25788001       3.50821999       2.29926008        0       0.00000000       0.00000000       0.00000000
O        3.66331003       7.62218002       0.37110802        0       0.00000000       0.00000000       0.00000000
O        4.86890999       3.49981002       2.11370007        0       0.00000000       0.00000000       0.00000000
Al       3.58741002       7.78202004       2.31538997        0       0.00000000       0.00000000       0.00000000
Al       5.01051999       3.54186997       0.29849992        0       0.00000000       0.00000000       0.00000000
O        0.69484402       4.99731998       0.00000000        0       0.00000000       0.00000000       0.00000000
O        2.25788001       0.69827900       2.29926008        0       0.00000000       0.00000000       0.00000000
O        3.66331003       4.99731998       0.37110802        0       0.00000000       0.00000000       0.00000000
O        4.86890999       0.70669200       2.11370007        0       0.00000000       0.00000000       0.00000000
Al       2.11491328       3.57600667       4.13636844        0       0.01785974      -0.00865681       0.00236854
Al       0.51821659       7.69850478       5.98344734        0       0.00088600       0.00638264       0.00860341
O        5.11605040       0.80653409       6.43446634        0       0.00259470       0.00781466       0.00271269
O        3.38821279       4.93161531       4.14399218        0      -0.01264501       0.01623655      -0.01078714
O        1.96387300       0.64170509       6.02184947        0      -0.00768315      -0.00020833       0.01188773
O        0.73768087       4.85260639       4.19863181        0       0.00508966      -0.01498520      -0.00661648
Al       2.17891000       6.30975000       0.20168905        0       0.00000000       0.00000000       0.00000000
Al       4.96132003       6.30975000       0.19362196        0       0.00000000       0.00000000       0.00000000
Al       3.32046720       6.30494412       5.32168321        0       0.02409583      -0.00252605       0.00505037
O        4.88669290       6.30479078       6.20817926        0      -0.02579656      -0.00393269       0.00131637
O        1.77886532       6.30077509       6.30941268        0       0.01390119       0.01829696       0.00512093
Al       3.76343519       2.11561431       6.25345958        0      -0.00381073      -0.00403509      -0.04021575
Al       0.81268584       2.09166339       6.12442634        0      -0.00199632       0.02985263       0.01443749
Al       2.21289002       2.10325000       1.24240994        0       0.00000000       0.00000000       0.00000000
O        0.73746299       2.10325000       0.20168905        0       0.00000000       0.00000000       0.00000000
O        3.62719002       2.10325000       0.08067562        0       0.00000000       0.00000000       0.00000000
Al       4.92612500       2.09981876       3.18837841        0       0.00000000       0.00000000       0.00000000
O        3.50188850       2.09822139       4.36526066        0       0.02854561       0.00739053      -0.04317563
O        0.83222781       2.09979912       4.19118819        0       0.04774651       0.00200319       0.04416707
Al       0.77855150       6.30013088       3.19740811        0       0.00780684       0.02273274      -0.00237960
O        2.20975002       6.30975000       2.08950008        0       0.00000000       0.00000000       0.00000000
O        4.90161003       6.30975000       2.19437997        0       0.00000000       0.00000000       0.00000000
Cu       2.74680998      10.47577699       8.22542962        0       0.00900310       0.00242378       0.01001970
41
Lattice="5.587 0.0 0.0 0.0 8.413 0.0 0.0 0.0 21.43792265" Properties=species:S:1:pos:R:3:tags:I:1:forces:R:3 energy=-293.63428194566904 rank=3 pbc="T T T"
Al       2.10432215       0.61578475       4.13480555        0       0.05775089       0.02763689      -0.00533049
Al       0.52629355       4.91362448       5.99042414        0      -0.00278399       0.00244306      -0.00226672
O        5.13079162       3.39658862       6.43918519        0      -0.00795602      -0.00099115       0.00423166
O        3.38112313       7.67701791       4.14204845        0      -0.00668198      -0.00376347      -0.01738062
O        1.98505694       3.53546847       6.02997393        0      -0.02292779      -0.00075026      -0.00513431
O        0.72752169       7.75508104       4.19013751        0      -0.00448787      -0.01085605      -0.00175269
Al       3.58741002       4.83747996       2.31538997        0       0.00000000       0.00000000       0.00000000
Al       5.01051999       0.66462700       0.29849992        0       0.00000000       0.00000000       0.00000000
O        0.69484402       7.62218002       0.00000000        0       0.00000000       0.00000000       0.00000000
O        2.25788001       3.50821999       2.29926008        0       0.00000000       0.00000000       0.00000000
O        3.66331003       7.62218002       0.37110802        0       0.00000000       0.00000000       0.00000000
O        4.86890999       3.49981002       2.11370007        0       0.00000000       0.00000000       0.00000000
Al       3.58741002       7.78202004       2.31538997        0       0.00000000       0.00000000       0.00000000
Al       5.01051999       3.54186997       0.29849992        0       0.00000000       0.00000000       0.00000000
O        0.69484402       4.99731998       0.00000000        0       0.00000000       0.00000000       0.00000000
O        2.25788001       0.69827900       2.29926008        0       0.00000000       0.00000000       0.00000000
O        3.66331003       4.99731998       0.37110802        0       0.00000000       0.00000000       0.00000000
O        4.86890999       0.70669200       2.11370007        0       0.00000000       0.00000000       0.00000000
Al       2.11160213       3.57824662       4.13589135        0       0.04106327      -0.01467864       0.00431618
Al       0.51933718       7.69974625       5.98448448        0       0.00161269       0.00067391       0.00859771
O        5.11703027       0.80671343       6.43409704        0       0.00264842       0.00578196       0.00593038
O        3.38689046       4.93276178       4.14378740        0      -0.01223759       0.01782026      -0.01356991
O        1.96569505       0.64593466       6.02322276        0      -0.01345074       0.00132411       0.01064396
O        0.73619078       4.85454744       4.19735203        0      -0.00244586      -0.00941752      -0.00970149
Al       2.17891000       6.30975000       0.20168905        0       0.00000000       0.00000000       0.00000000
Al       4.96132003       6.30975000       0.19362196        0       0.00000000       0.00000000       0.00000000
Al       3.32083606       6.30612132       5.32156065        0       0.02365359      -0.00266467       0.00207280
O        4.88708098       6.30595855       6.20830186        0      -0.02694055      -0.00260720       0.00067710
O        1.77929366       6.30301961       6.30856445        0       0.00646263       0.01371825       0.00962666
Al       3.76176432       2.11219579       6.25518883        0      -0.00442735      -0.00221172      -0.05435551
Al       0.81120852       2.09456654       6.12399841        0      -0.00252133       0.02290908       0.01806330
Al       2.21289002       2.10325000       1.24240994        0       0.00000000       0.00000000       0.00000000
O        0.73746299       2.10325000       0.20168905        0       0.00000000       0.00000000       0.00000000
O        3.62719002       2.10325000       0.08067562        0       0.00000000       0.00000000       0.00000000
Al       4.92612500       2.09981876       3.18837841        0       0.00000000       0.00000000       0.00000000
O        3.49838613       2.09947676       4.36688827        0       0.05225630       0.00387947      -0.06622793
O        0.82943171       2.10061215       4.19065310        0       0.07409596       0.00034883       0.05624967
Al       0.77848111       6.30257343       3.19708814        0       0.01046325       0.01579860       0.00287352
O        2.20975002       6.30975000       2.08950008        0       0.00000000       0.00000000       0.00000000
O        4.90161003       6.30975000       2.19437997        0       0.00000000       0.00000000       0.00000000
Cu       2.74655137      10.48651399       8.22706573        0       0.00507435       0.00300426       0.01051928
41
Lattice="5.587 0.0 0.0 0.0 8.413 0.0 0.0 0.0 21.43792265" Properties=species:S:1:pos:R:3:tags:I:1:forces:R:3 energy=-293.6336199349306 rank=4 pbc="T T T"
Al       2.10355811       0.61777286       4.13471538        0       0.07565326       0.03028755       0.00105838
Al       0.52492710       4.91417833       5.98936254        0      -0.00078162       0.00599718       0.00008513
O        5.12685383       3.39710307       6.43705107        0      -0.00462549      -0.00113698       0.00865311
O        3.38182461       7.67913600       4.14246911        0      -0.00783811      -0.00893884      -0.01944474
O        1.97985897       3.53998070       6.02892681        0      -0.02577652      -0.00297947      -0.00058346
O        0.72913359       7.75646482       4.19142646        0      -0.01185074      -0.00858505      -0.00842484
Al       3.58741002       4.83747996       2.31538997        0       0.00000000       0.00000000       0.00000000
Al       5.01051999       0.66462700       0.29849992        0       0.00000000       0.00000000       0.00000000
O        0.69484402       7.62218002       0.00000000        0       0.00000000       0.00000000       0.00000000
O        2.25788001       3.50821999       2.29926008        0       0.00000000       0.00000000       0.00000000
O        3.66331003       7.62218002       0.37110802        0       0.00000000       0.00000000       0.00000000
O        4.86890999       3.49981002       2.11370007        0       0.00000000       0.00000000       0.00000000
Al       3.58741002       7.78202004       2.31538997        0       0.00000000       0.00000000       0.00000000
Al       5.01051999       3.54186997       0.29849992        0       0.00000000       0.00000000       0.00000000
O        0.69484402       4.99731998       0.00000000        0       0.00000000       0.00000000       0.00000000
O        2.25788001       0.69827900       2.29926008        0       0.00000000       0.00000000       0.00000000
O        3.66331003       4.99731998       0.37110802        0       0.00000000       0.00000000       0.00000000
O        4.86890999       0.70669200       2.11370007        0       0.00000000       0.00000000       0.00000000
Al       2.10829098       3.58048656       4.13541425        0       0.06437529      -0.02068439       0.00585501
Al       0.52045777       7.70098772       5.98552161        0       0.00215557      -0.00538301       0.00855416
O        5.11801013       0.80689277       6.43372774        0       0.00253671       0.00406604       0.00930682
O        3.38556813       4.93390824       4.14358261        0      -0.01184949       0.01944821      -0.01617793
O        1.96751710       0.65016424       6.02459606        0      -0.01934243       0.00275902       0.00965233
O        0.73470069       4.85648850       4.19607226        0      -0.01001883      -0.00375605      -0.01276379
Al       2.17891000       6.30975000       0.20168905        0       0.00000000       0.00000000       0.00000000
Al       4.96132003       6.30975000       0.19362196        0       0.00000000       0.00000000       0.00000000
Al       3.32120492       6.30729851       5.32143810        0       0.02321150      -0.00271759      -0.00093459
O        4.88746906       6.30712631       6.20842446        0      -0.02809588      -0.00126468       0.00008130
O        1.77972200       6.30526413       6.30771622        0      -0.00073487       0.00926670       0.01420570
Al       3.76009345       2.10877728       6.25691808        0      -0.00426888      -0.00069853      -0.06818134
Al       0.80973121       2.09746968       6.12357048        0      -0.00333586       0.01597085       0.02165712
Al       2.21289002       2.10325000       1.24240994        0       0.00000000       0.00000000       0.00000000
O        0.73746299       2.10325000       0.20168905        0       0.00000000       0.00000000       0.00000000
O        3.62719002       2.10325000       0.08067562        0       0.00000000       0.00000000       0.00000000
Al       4.92612500       2.09981876       3.18837841        0       0.00000000       0.00000000       0.00000000
O        3.49488376       2.10073213       4.36851587        0       0.07541173       0.00044509      -0.08866156
O        0.82663561       2.10142517       4.19011801        0       0.10123157      -0.00128252       0.06902732
Al       0.77841073       6.30501598       3.19676817        0       0.01322419       0.00884787       0.00815733
O        2.20975002       6.30975000       2.08950008        0       0.00000000       0.00000000       0.00000000
O        4.90161003       6.30975000       2.19437997        0       0.00000000       0.00000000       0.00000000
Cu       2.74629276      10.49725099       8.22870184        0       0.00091084       0.00266946       0.00963971
41
Lattice="5.587 0.0 0.0 0.0 8.413 0.0 0.0 0.0 21.43792265" Properties=species:S:1:pos:R:3:tags:I:1:forces:R:3 energy=-293.6325123026742 rank=5 pbc="T T T"
Al       2.10279406       0.61976097       4.13462520        0       0.09358684       0.03295914       0.00716163
Al       0.52356066       4.91473217       5.98830095        0       0.00101754       0.01113240       0.00282934
O        5.12291604       3.39761751       6.43491694        0      -0.00142041      -0.00164008       0.01322824
O        3.38252610       7.68125408       4.14288976        0      -0.00895650      -0.01411796      -0.02142565
O        1.97466100       3.54449293       6.02787970        0      -0.02843185      -0.00530984       0.00413022
O        0.73074549       7.75784861       4.19271541        0      -0.01922739      -0.00631870      -0.01504168
Al       3.58741002       4.83747996       2.31538997        0       0.00000000       0.00000000       0.00000000
Al       5.01051999       0.66462700       0.29849992        0       0.00000000       0.00000000       0.00000000
O        0.69484402       7.62218002       0.00000000        0       0.00000000       0.00000000       0.00000000
O        2.25788001       3.50821999       2.29926008        0       0.00000000       0.00000000       0.00000000
O        3.66331003       7.62218002       0.37110802        0       0.00000000       0.00000000       0.00000000
O        4.86890999       3.49981002       2.11370007        0       0.00000000       0.00000000       0.00000000
Al       3.58741002       7.78202004       2.31538997        0       0.00000000       0.00000000       0.00000000
Al       5.01051999       3.54186997       0.29849992        0       0.00000000       0.00000000       0.00000000
O        0.69484402       4.99731998       0.00000000        0       0.00000000       0.00000000       0.00000000
O        2.25788001       0.69827900       2.29926008        0       0.00000000       0.00000000       0.00000000
O        3.66331003       4.99731998       0.37110802        0       0.00000000       0.00000000       0.00000000
O        4.86890999       0.70669200       2.11370007        0       0.00000000       0.00000000       0.00000000
Al       2.10497983       3.58272651       4.13493716        0       0.08780286      -0.02668234       0.00698677
Al       0.52157837       7.70222919       5.98655874        0       0.00256737      -0.01191603       0.00852049
O        5.11899000       0.80707210       6.43335843        0       0.00223978       0.00268203       0.01286360
O        3.38424580       4.93505471       4.14337783        0      -0.01148852       0.02117598      -0.01856748
O        1.96933916       0.65439382       6.02596936        0      -0.02544684       0.00402715       0.00891198
O        0.73321060       4.85842956       4.19479249        0      -0.01762881       0.00199234      -0.01580138
Al       2.17891000       6.30975000       0.20168905        0       0.00000000       0.00000000       0.00000000
Al       4.96132003       6.30975000       0.19362196        0       0.00000000       0.00000000       0.00000000
Al       3.32157377       6.30847570       5.32131555        0       0.02274206      -0.00271153      -0.00399362
O        4.88785715       6.30829408       6.20854706        0      -0.02926321       0.00009834      -0.00047065
O        1.78015033       6.30750866       6.30686800        0      -0.00769348       0.00493572       0.01885747
Al       3.75842259       2.10535876       6.25864732        0      -0.00326362       0.00060174      -0.08167537
Al       0.80825389       2.10037283       6.12314254        0      -0.00445233       0.00903241       0.02520722
Al       2.21289002       2.10325000       1.24240994        0       0.00000000       0.00000000       0.00000000
O        0.73746299       2.10325000       0.20168905        0       0.00000000       0.00000000       0.00000000
O        3.62719002       2.10325000       0.08067562        0       0.00000000       0.00000000       0.00000000
Al       4.92612500       2.09981876       3.18837841        0       0.00000000       0.00000000       0.00000000
O        3.49138138       2.10198750       4.37014347        0       0.09805567      -0.00291262      -0.11051704
O        0.82383950       2.10223820       4.18958291        0       0.12917481      -0.00288539       0.08252159
Al       0.77834035       6.30745853       3.19644821        0       0.01603922       0.00202791       0.01366421
O        2.20975002       6.30975000       2.08950008        0       0.00000000       0.00000000       0.00000000
O        4.90161003       6.30975000       2.19437997        0       0.00000000       0.00000000       0.00000000
Cu       2.74603414      10.50798800       8.23033795        0      -0.00354011       0.00111100       0.00697729
41
Lattice="5.587 0.0 0.0 0.0 8.413 0.0 0.0 0.0 21.43792265" Properties=species:S:1:pos:R:3:tags:I:1:forces:R:3 energy=-293.6376153919542 rank=6 pbc="T T T"
Al       2.10203002       0.62174908       4.13453503        0      -0.00463943       0.01466738      -0.00620336
Al       0.52219422       4.91528601       5.98723935        0       0.00539182       0.01890101      -0.00052876
O        5.11897825       3.39813195       6.43278282        0      -0.00699408      -0.00248774       0.01171241
O        3.38322759       7.68337217       4.14331042        0      -0.00900508      -0.00768698      -0.01338881
O        1.96946304       3.54900516       6.02683259        0      -0.01291708      -0.00723131       0.00607623
O        0.73235739       7.75923239       4.19400436        0      -0.02449746      -0.01681236      -0.01178787
Al       3.58741002       4.83747996       2.31538997        0       0.00000000       0.00000000       0.00000000