38
Lattice="8.417993093 0.0 0.0 4.208996546 7.290195867 0.0 0.0 0.0 29.657262579" Properties=species:S:1:pos:R:3:forces:R:3 energy=-224.71660211 pbc="T T T"
C        4.20900000       0.00000000      18.49926000       0.00000000       0.05885000      -3.12611600
O        4.20900000       0.00000000      19.65726000       0.00000000      -0.01768200       1.52995300
Pt       5.61200000       4.86013000      16.87326000      -0.10373600      -0.08823500       0.03059600
Pt       5.61200000       1.62004000      14.58218000       0.03958600       0.04124300      -0.32232500
Pt       9.82099000       4.05011000      14.58218000      -0.01853600      -0.01418700      -0.23935600
Pt       4.20900000       4.05011000      14.58218000      -0.00000000      -0.02840700      -0.28264700
Pt       7.01499000       4.05011000      14.58218000       0.01853600      -0.01418700      -0.23935600
Pt      11.22399000       6.48017000      14.58218000      -0.09664200       0.08333600      -0.06679700
Pt       5.61200000       6.48017000      14.58218000       0.09664200       0.08333600      -0.06679700
Pt       8.41799000       4.86013000      16.87326000       0.00000000      -0.51091900       0.01739900
Pt       8.41799000       6.48017000      14.58218000       0.00000000      -0.11899100      -0.55996800
Pt       2.80600000       0.00000000      16.87326000       0.22413100      -0.10231000       1.38719500
Pt       5.61200000       0.00000000      16.87326000      -0.22413100      -0.10231000       1.38719500
Pt       1.40300000       2.43007000      16.87326000      -0.10144600       0.12173400       0.02437500
Pt       4.20900000       2.43007000      16.87326000       0.00000000       0.54050000       0.02186400
Pt       7.01499000       2.43007000      16.87326000       0.10144600       0.12173400       0.02437500
Pt       2.80600000       4.86013000      16.87326000       0.10373600      -0.08823500       0.03059600
Pt       2.80600000       1.62004000      14.58218000      -0.03958600       0.04124300      -0.32232500
Pt       0.00000000       0.00000000      16.87326000       0.00000000      -0.02120500       0.01381400
Pt       0.00000000       0.00000000      10.00000000       0.00000000      -0.00586400      -0.02608100
Pt       7.01499000       5.67015000      12.29109000      -0.04700600      -0.01704300       0.18579700
Pt       2.80600000       0.00000000      10.00000000      -0.00360700       0.00008800      -0.04838400
Pt       5.61200000       0.00000000      10.00000000       0.00360700       0.00008800      -0.04838400
Pt       1.40300000       2.43007000      10.00000000      -0.00092800       0.00416400      -0.06549600
Pt       4.20900000       2.43007000      10.00000000       0.00000000       0.00313600      -0.03511100
Pt       7.01499000       2.43007000      10.00000000       0.00092800       0.00416400      -0.06549600
Pt       2.80600000       4.86013000      10.00000000      -0.03827900      -0.00121200      -0.09858100
Pt       5.61200000       4.86013000      10.00000000       0.03827900      -0.00121200      -0.09858100
Pt       8.41799000       4.86013000      10.00000000       0.00000000      -0.00986800      -0.06722700
Pt       1.40300000       0.81002000      12.29109000      -0.00384500      -0.01517100       0.22569500
Pt       4.20900000       0.81002000      12.29109000      -0.00000000       0.01374300       0.22791300
Pt       7.01499000       0.81002000      12.29109000       0.00384500      -0.01517100       0.22569500
Pt       2.80600000       3.24009000      12.29109000       0.01573600       0.05917300       0.12354200
Pt       5.61200000       3.24009000      12.29109000      -0.01573600       0.05917300       0.12354200
Pt       8.41799000       3.24009000      12.29109000       0.00000000       0.00407500       0.19713200
Pt       4.20900000       5.67015000      12.29109000       0.00000000      -0.09133300       0.04633300
Pt       9.82099000       5.67015000      12.29109000       0.04700600      -0.01704300       0.18579700
Pt       8.41799000       1.62004000      14.58218000       0.00000000       0.04080400      -0.22978100
38
Lattice="8.417993093 0.0 0.0 4.208996546 7.290195867 0.0 0.0 0.0 29.428262579" Properties=species:S:1:pos:R:3:forces:R:3 energy=-224.87795819 pbc="T T T"
C        5.61200000       6.48017000      18.27026000       0.00000000      -0.00000000      -3.37497300
O        5.61200000       6.48017000      19.42826000       0.00000000      -0.00000000       3.08161500
Pt       5.61200000       4.86013000      16.87326000      -0.00000000      -0.24349700       0.66435700
Pt       5.61200000       1.62004000      14.58218000       0.00000000      -0.00000000      -0.24019900
Pt       9.82099000       4.05011000      14.58218000       0.00000000      -0.00000000      -0.29136900
Pt       4.20900000       4.05011000      14.58218000      -0.01396900      -0.02107400      -0.24758600
Pt       7.01499000       4.05011000      14.58218000       0.01396900      -0.02107400      -0.24758600
Pt      11.22399000       6.48017000      14.58218000      -0.02523500      -0.00156100      -0.24758600
Pt       5.61200000       6.48017000      14.58218000       0.00000000      -0.00000000      -0.57796300
Pt       8.41799000       4.86013000      16.87326000       0.28397100      -0.16395100      -0.03130100
Pt       8.41799000       6.48017000      14.58218000       0.02523500      -0.00156100      -0.24758600
Pt       2.80600000       0.00000000      16.87326000       0.21087500       0.12174900       0.66435700
Pt       5.61200000       0.00000000      16.87326000       0.00000000      -0.01714300       0.02033600
Pt       1.40300000       2.43007000      16.87326000      -0.00000000       0.32790200      -0.03130100
Pt       4.20900000       2.43007000      16.87326000      -0.01484600       0.00857100       0.02033600
Pt       7.01499000       2.43007000      16.87326000       0.01484600       0.00857100       0.02033600
Pt       2.80600000       4.86013000      16.87326000      -0.28397100      -0.16395100      -0.03130100
Pt       2.80600000       1.62004000      14.58218000       0.01126600       0.02263400      -0.24758600
Pt       0.00000000       0.00000000      16.87326000      -0.21087500       0.12174900       0.66435700
Pt       0.00000000       0.00000000      10.00000000      -0.00782500       0.00451800      -0.06573400
Pt       7.01499000       5.67015000      12.29109000       0.03617400      -0.02088500       0.21442000
Pt       2.80600000       0.00000000      10.00000000       0.00782500       0.00451800      -0.06573400
Pt       5.61200000       0.00000000      10.00000000       0.00000000      -0.00415400      -0.07982500
Pt       1.40300000       2.43007000      10.00000000       0.00000000      -0.02386900      -0.08285300
Pt       4.20900000       2.43007000      10.00000000      -0.00359700       0.00207700      -0.07982500
Pt       7.01499000       2.43007000      10.00000000       0.00359700       0.00207700      -0.07982500
Pt       2.80600000       4.86013000      10.00000000       0.02067200       0.01193500      -0.08285300
Pt       5.61200000       4.86013000      10.00000000       0.00000000      -0.00903500      -0.06573400
Pt       8.41799000       4.86013000      10.00000000      -0.02067200       0.01193500      -0.08285300
Pt       1.40300000       0.81002000      12.29109000       0.00000000       0.04177000       0.21442000
Pt       4.20900000       0.81002000      12.29109000      -0.00302900      -0.00174900       0.23346400
Pt       7.01499000       0.81002000      12.29109000       0.00302900      -0.00174900       0.23346400
Pt       2.80600000       3.24009000      12.29109000      -0.04137500       0.02388800       0.08993900
Pt       5.61200000       3.24009000      12.29109000       0.00000000       0.00349800       0.23346400
Pt       8.41799000       3.24009000      12.29109000       0.04137500       0.02388800       0.08993900
Pt       4.20900000       5.67015000      12.29109000      -0.03617400      -0.02088500       0.21442000
Pt       9.82099000       5.67015000      12.29109000       0.00000000      -0.04777500       0.08993900
Pt       8.41799000       1.62004000      14.58218000      -0.01126600       0.02263400      -0.24758600
